     212
 i =       10, E =     -1252.5517475811
      P 11.01996681 15.70885045 45.70550744
      F 11.3895710385 16.8824086938 44.6247055738
      F 11.5522356132 14.572494405 44.628136167
      F 10.6888383416 14.443078456 46.7673154878
      F 10.4319244044 16.7875154662 46.7694481748
      F 12.4984084243 15.8207230041 46.3871576616
      F 9.514594905 15.5235930787 45.0712920329
      N 9.2557162167 10.0572302172 45.2175980332
      C 10.1569908207 10.7545002748 45.935042249
      N 11.2787269794 10.0260251053 46.0001530755
      C 11.0998095833 8.8501483892 45.3071202197
      C 9.8313203443 8.8682015194 44.8086441421
      H 10.0077271663 11.7317975243 46.3869086071
      H 11.8835973488 8.1060634725 45.2624829426
      H 9.3018077236 8.1497078629 44.1933277268
      C 7.9213357686 10.5329517992 44.8474391735
      C 12.5207025652 10.3964819981 46.6810140011
      C 13.5852101562 10.9650983353 45.7619763724
      C 13.1456066797 12.2943342513 45.1455004992
      C 14.2793767206 13.3045656317 45.0069299681
      H 7.3021595132 9.6632146108 44.6087392227
      H 7.9900765766 11.1957760437 43.9770958029
      H 7.4778788882 11.0743904228 45.6884814335
      H 12.8659167857 9.4972997078 47.196309881
      H 12.2348545078 11.153673756 47.415065945
      H 14.4640599757 11.1161746058 46.4080614046
      H 13.879012451 10.217192958 45.0070256787
      H 12.3699834359 12.7537910189 45.7762217585
      H 12.6601648208 12.1222724537 44.1731853068
      H 15.0571736024 12.9547069096 44.3143722797
      H 13.8792658573 14.2592753489 44.6503161864
      H 14.7453076039 13.4894835366 45.9868846025
  C         1.8420000000        0.7100000000       50.0000000000
  C         0.6120000060        1.4199997383       49.9999999999
  C         0.6120000567        2.8399998467       50.0000000000
  C         1.8420001621        3.5500000132       50.0000000000
  C         4.3019998590        0.7099997709       50.0000000000
  C         3.0720000914        1.4199998039       50.0000000001
  C         3.0720001020        2.8399998181       49.9999999998
  C         4.3019998448        3.5500000646       50.0000000001
  C         6.7520000875        0.7099999092       50.0000000001
  C         5.5219998706        1.4200001435       50.0000000000
  C         5.5220001101        2.8399996887       50.0000000001
  C         6.7519998563        3.5499998885       49.9999999999
  C         9.2120000665        0.7099999141       50.0000000001
  C         7.9819998763        1.4200002293       50.0000000000
  C         7.9820001114        2.8399997176       50.0000000000
  C         9.2119999848        3.5499998646       50.0000000001
  C        11.6620000027        0.7100000799       50.0000000000
  C        10.4419998898        1.4199999694       50.0000000000
  C        10.4420000994        2.8399998880       50.0000000000
  C        11.6620001325        3.5499999122       50.0000000000
  C        14.1220006870        0.7099998114       50.0000000001
  C        12.8920002409        1.4199998323       50.0000000000
  C        12.8920000608        2.8399999927       50.0000000001
  C        14.1220011483        3.5500000056       49.9999999998
  C        16.5819995267        0.7099996315       50.0000000000
  C        15.3519990965        1.4199997704       50.0000000001
  C        15.3519986820        2.8400002553       49.9999999999
  C        16.5820000079        3.5500000560       50.0000000000
  C        19.0320005078        0.7099995594       50.0000000000
  C        17.8019989264        1.4199996833       49.9999999999
  C        17.8019986587        2.8400003420       49.9999999999
  C        19.0320010032        3.5500000383       50.0000000000
  C        21.4919998223        0.7099995927       50.0000000000
  C        20.2619997392        1.4200001312       50.0000000000
  C        20.2619998448        2.8399999596       50.0000000000
  C        21.4920001606        3.5500000836       50.0000000000
  C         1.8420002281        4.9600001204       50.0000000001
  C         0.6119997204        5.6699999762       49.9999999998
  C         0.6120002342        7.0900001515       50.0000000004
  C         1.8419999988        7.8000001862       50.0000000000
  C         4.3020003705        4.9600002361       49.9999999999
  C         3.0719996011        5.6700002829       49.9999999999
  C         3.0719999380        7.0899998895       50.0000000001
  C         4.3019996366        7.8000001592       50.0000000001
  C         6.7520004386        4.9600001699       49.9999999999
  C         5.5219995244        5.6700003556       50.0000000000
  C         5.5220000115        7.0899996260       50.0000000000
  C         6.7519996804        7.8000002019       50.0000000000
  C         9.2120003056        4.9600000634       50.0000000000
  C         7.9819995850        5.6700002571       50.0000000001
  C         7.9820001738        7.0899995093       50.0000000001
  C         9.2119998247        7.8000000891       50.0000000000
  C        11.6620000875        4.9599999727       50.0000000000
  C        10.4419998151        5.6700002066       49.9999999999
  C        10.4420001974        7.0899998047       50.0000000000
  C        11.6619999373        7.7999998947       50.0000000000
  C        14.1220009710        4.9600000215       50.0000000002
  C        12.8920001720        5.6700000053       49.9999999999
  C        12.8920001377        7.0900000045       50.0000000000
  C        14.1220011987        7.7999999747       49.9999999999
  C        16.5820000047        4.9599999420       49.9999999999
  C        15.3519993452        5.6699999259       50.0000000000
  C        15.3519989492        7.0900001497       49.9999999999
  C        16.5819999371        7.8000001976       50.0000000002
  C        19.0320010851        4.9600000099       49.9999999999
  C        17.8019990260        5.6700000866       50.0000000002
  C        17.8019988010        7.0900002844       50.0000000000
  C        19.0320009331        7.7999999943       50.0000000001
  C        21.4919999942        4.9600002008       50.0000000000
  C        20.2619998188        5.6700001582       50.0000000000
  C        20.2620001379        7.0899999878       50.0000000000
  C        21.4919997342        7.8000001737       49.9999999998
  C         1.8419998586        9.2200001919       50.0000000000
  C         0.6120002120        9.9300003026       49.9999999999
  C         0.6120001869       11.3499998963       50.0000000000
  C         1.8420006554       12.0499990507       50.0000000000
  C         4.3020001816        9.2200001063       49.9999999998
  C         3.0719997814        9.9299998368       50.0000000001
  C         3.0719996539       11.3500004101       50.0000000000
  C         4.3019996939       12.0499990018       49.9999999999
  C         6.7520003049        9.2200001647       50.0000000002
  C         5.5219994145        9.9300001520       50.0000000002
  C         5.5219995928       11.3500001300       50.0000000000
  C         6.7519998371       12.0499990940       49.9999999999
  C         9.2120002473        9.2200000604       50.0000000000
  C         7.9819997104        9.9300000537       49.9999999999
  C         7.9819999858       11.3499998280       49.9999999997
  C         9.2119998475       12.0499993694       49.9999999999
  C        11.6620001575        9.2199998815       50.0000000001
  C        10.4419999683        9.9299999188       50.0000000001
  C        10.4420000647       11.3499998346       50.0000000000
  C        11.6619998840       12.0499990360       50.0000000000
  C        14.1220008978        9.2200000078       49.9999999998
  C        12.8920001584        9.9299999402       50.0000000000
  C        12.8920000953       11.3500001174       50.0000000001
  C        14.1220012773       12.0499989958       50.0000000000
  C        16.5819998718        9.2199998164       50.0000000002
  C        15.3519994715        9.9299997127       49.9999999999
  C        15.3519989351       11.3500002780       50.0000000001
  C        16.5820002218       12.0499990254       50.0000000000
  C        19.0320004435        9.2199999525       50.0000000001
  C        17.8019992749        9.9299997239       49.9999999999
  C        17.8019986116       11.3500005428       50.0000000000
  C        19.0320011346       12.0499988094       50.0000000001
  C        21.4919995211        9.2199997968       49.9999999999
  C        20.2619999408        9.9299999345       50.0000000000
  C        20.2619993055       11.3500003551       49.9999999999
  C        21.4920000637       12.0499990042       50.0000000002
  C         1.8419995254       13.4700001094       50.0000000000
  C         0.6120010300       14.1800005140       50.0000000002
  C         0.6120000353       15.5999986818       50.0000000000
  C         1.8420012240       16.3099987382       49.9999999999
  C         4.3019993726       13.4699997905       50.0000000000
  C         3.0720007843       14.1799992481       50.0000000000
  C         3.0719998807       15.5999997328       50.0000000000
  C         4.3020000980       16.3099991336       49.9999999999
  C         6.7519994915       13.4699998615       50.0000000002
  C         5.5220001688       14.1799996992       50.0000000000
  C         5.5219995809       15.5999995232       50.0000000000
  C         6.7520001368       16.3099989187       50.0000000000
  C         9.2119996413       13.4699998575       50.0000000000
  C         7.9820002859       14.1799997620       50.0000000000
  C         7.9819997103       15.5999994046       49.9999999999
  C         9.2120000868       16.3099991837       50.0000000001
  C        11.6619997030       13.4699997751       50.0000000000
  C        10.4420003471       14.1799995763       49.9999999999
  C        10.4419997711       15.5999992029       50.0000000001
  C        11.6620003087       16.3099989785       50.0000000001
  C        14.1220006796       13.4699997596       50.0000000000
  C        12.8920004129       14.1799996367       50.0000000000
  C        12.8919998478       15.5999993917       49.9999999999
  C        14.1220013185       16.3099989245       50.0000000000
  C        16.5819996308       13.4699997546       50.0000000000
  C        15.3519995645       14.1799995324       50.0000000000
  C        15.3519987586       15.5999994870       50.0000000001
  C        16.5820004113       16.3099987442       50.0000000000
  C        19.0320000210       13.4699998093       49.9999999999
  C        17.8019996165       14.1799994902       50.0000000000
  C        17.8019986549       15.5999995328       49.9999999999
  C        19.0320012978       16.3099986797       50.0000000002
  C        21.4919988634       13.4699995844       49.9999999998
  C        20.2619999041       14.1799998409       50.0000000000
  C        20.2619987413       15.5999995987       49.9999999998
  C        21.4920003736       16.3099988805       50.0000000001
  C         1.8419998271       17.7300000892       50.0000000002
  C         0.6120013675       18.4400005619       49.9999999998
  C         0.6120003003       19.8499987757       50.0000000000
  C         1.8420003451       20.5599996333       50.0000000001
  C         4.3019994416       17.7299998445       50.0000000001
  C         3.0720010694       18.4399995427       49.9999999998
  C         3.0720001994       19.8499995152       50.0000000000
  C         4.3020000518       20.5600002956       50.0000000000
  C         6.7519995811       17.7299998546       49.9999999999
  C         5.5220004724       18.4399998653       50.0000000000
  C         5.5219999484       19.8499990636       50.0000000000
  C         6.7519998948       20.5600002041       50.0000000000
  C         9.2119996215       17.7299996474       50.0000000001
  C         7.9820005570       18.4399998429       50.0000000001
  C         7.9819999770       19.8499991423       50.0000000000
  C         9.2119999561       20.5600001944       49.9999999999
  C        11.6619992870       17.7299997541       50.0000000000
  C        10.4420007025       18.4399997085       49.9999999998
  C        10.4420001386       19.8499994928       50.0000000001
  C        11.6619998684       20.5600000280       49.9999999999
  C        14.1220003830       17.7299997195       49.9999999998
  C        12.8920011773       18.4399995261       50.0000000001
  C        12.8920004541       19.8499994459       49.9999999999
  C        14.1220012306       20.5600002951       50.0000000000
  C        16.5819991862       17.7299996379       50.0000000000
  C        15.3520001224       18.4399996602       49.9999999999
  C        15.3519993344       19.8499998903       50.0000000000
  C        16.5820002673       20.5599999441       50.0000000000
  C        19.0319997725       17.7299997852       50.0000000000
  C        17.8020001701       18.4399996626       50.0000000000
  C        17.8019993820       19.8499999489       50.0000000001
  C        19.0320009384       20.5600002496       50.0000000002
  C        21.4919989029       17.7299997258       49.9999999999
  C        20.2620004800       18.4399998809       50.0000000000
  C        20.2619995242       19.8499993647       50.0000000001
  C        21.4920000000       20.5600000000       50.0000000000
